<?xml version="1.0" encoding="UTF-8"?>

<!-- generated on 02/08/19 23:42:00 by Eclipse SUMO GUI Version 1.0.1
<configuration xmlns:xsi="http://www.w3.org/2001/XMLSchema-instance" xsi:noNamespaceSchemaLocation="http://sumo.dlr.de/xsd/sumoConfiguration.xsd">

    <input>
        <net-file value="C:\Users\Assem\Downloads\16BD0028_HW_5\16BD0034_HW_5\cross.net.xml"/>
        <route-files value="C:\Users\Assem\Downloads\16BD0028_HW_5\16BD0034_HW_5\cross.rou.xml"/>
        <additional-files value="C:\Users\Assem\Downloads\16BD0028_HW_5\16BD0034_HW_5\cross.add.xml"/>
    </input>

    <time>
        <begin value="0"/>
    </time>

    <report>
        <verbose value="true"/>
        <no-step-log value="true"/>
    </report>

</configuration>
-->

<detector xmlns:xsi="http://www.w3.org/2001/XMLSchema-instance" xsi:noNamespaceSchemaLocation="http://sumo.dlr.de/xsd/det_e1_file.xsd">
    <interval begin="0.00" end="30.00" id="1" nVehContrib="0" flow="0.00" occupancy="0.00" speed="-1.00" length="-1.00" nVehEntered="0"/>
    <interval begin="30.00" end="60.00" id="1" nVehContrib="4" flow="480.00" occupancy="4.47" speed="15.16" length="5.00" nVehEntered="4"/>
    <interval begin="60.00" end="90.00" id="1" nVehContrib="5" flow="600.00" occupancy="9.88" speed="9.16" length="5.00" nVehEntered="5"/>
    <interval begin="90.00" end="120.00" id="1" nVehContrib="6" flow="720.00" occupancy="6.89" speed="15.23" length="5.00" nVehEntered="6"/>
    <interval begin="120.00" end="150.00" id="1" nVehContrib="5" flow="600.00" occupancy="5.65" speed="14.86" length="5.00" nVehEntered="5"/>
    <interval begin="150.00" end="180.00" id="1" nVehContrib="1" flow="120.00" occupancy="1.49" speed="11.21" length="5.00" nVehEntered="1"/>
    <interval begin="180.00" end="210.00" id="1" nVehContrib="0" flow="0.00" occupancy="0.00" speed="-1.00" length="-1.00" nVehEntered="0"/>
    <interval begin="210.00" end="240.00" id="1" nVehContrib="0" flow="0.00" occupancy="0.00" speed="-1.00" length="-1.00" nVehEntered="0"/>
    <interval begin="240.00" end="270.00" id="1" nVehContrib="3" flow="360.00" occupancy="3.05" speed="16.37" length="5.00" nVehEntered="3"/>
    <interval begin="270.00" end="300.00" id="1" nVehContrib="6" flow="720.00" occupancy="6.40" speed="15.69" length="5.00" nVehEntered="6"/>
    <interval begin="300.00" end="330.00" id="1" nVehContrib="6" flow="720.00" occupancy="11.19" speed="10.03" length="5.00" nVehEntered="6"/>
    <interval begin="330.00" end="360.00" id="1" nVehContrib="5" flow="600.00" occupancy="7.16" speed="13.94" length="5.00" nVehEntered="5"/>
    <interval begin="360.00" end="390.00" id="1" nVehContrib="6" flow="720.00" occupancy="6.70" speed="15.06" length="5.00" nVehEntered="6"/>
    <interval begin="390.00" end="420.00" id="1" nVehContrib="4" flow="480.00" occupancy="8.52" speed="8.40" length="5.00" nVehEntered="4"/>
    <interval begin="420.00" end="450.00" id="1" nVehContrib="6" flow="720.00" occupancy="7.19" speed="14.77" length="5.00" nVehEntered="6"/>
    <interval begin="450.00" end="480.00" id="1" nVehContrib="5" flow="600.00" occupancy="5.88" speed="14.49" length="5.00" nVehEntered="5"/>
    <interval begin="480.00" end="510.00" id="1" nVehContrib="4" flow="480.00" occupancy="7.87" speed="9.76" length="5.00" nVehEntered="6"/>
    <interval begin="510.00" end="540.00" id="1" nVehContrib="6" flow="720.00" occupancy="5.36" speed="16.34" length="5.00" nVehEntered="6"/>
    <interval begin="540.00" end="570.00" id="1" nVehContrib="5" flow="600.00" occupancy="6.91" speed="12.25" length="5.00" nVehEntered="5"/>
    <interval begin="570.00" end="600.00" id="1" nVehContrib="4" flow="480.00" occupancy="7.88" speed="9.89" length="5.00" nVehEntered="4"/>
    <interval begin="600.00" end="630.00" id="1" nVehContrib="6" flow="720.00" occupancy="6.21" speed="16.12" length="5.00" nVehEntered="6"/>
    <interval begin="630.00" end="660.00" id="1" nVehContrib="5" flow="600.00" occupancy="8.22" speed="10.89" length="5.00" nVehEntered="6"/>
    <interval begin="660.00" end="690.00" id="1" nVehContrib="4" flow="480.00" occupancy="4.74" speed="14.84" length="5.00" nVehEntered="4"/>
    <interval begin="690.00" end="720.00" id="1" nVehContrib="5" flow="600.00" occupancy="5.48" speed="15.36" length="5.00" nVehEntered="5"/>
    <interval begin="720.00" end="750.00" id="1" nVehContrib="4" flow="480.00" occupancy="8.29" speed="8.91" length="5.00" nVehEntered="5"/>
    <interval begin="750.00" end="780.00" id="1" nVehContrib="6" flow="720.00" occupancy="6.61" speed="15.24" length="5.00" nVehEntered="5"/>
    <interval begin="780.00" end="810.00" id="1" nVehContrib="6" flow="720.00" occupancy="7.77" speed="13.31" length="5.00" nVehEntered="6"/>
    <interval begin="810.00" end="840.00" id="1" nVehContrib="3" flow="360.00" occupancy="14.98" speed="7.81" length="5.00" nVehEntered="4"/>
    <interval begin="840.00" end="870.00" id="1" nVehContrib="5" flow="600.00" occupancy="5.06" speed="16.45" length="5.00" nVehEntered="6"/>
    <interval begin="870.00" end="900.00" id="1" nVehContrib="5" flow="600.00" occupancy="8.00" speed="11.59" length="5.00" nVehEntered="5"/>
    <interval begin="900.00" end="930.00" id="1" nVehContrib="4" flow="480.00" occupancy="6.49" speed="13.48" length="5.00" nVehEntered="5"/>
    <interval begin="930.00" end="960.00" id="1" nVehContrib="6" flow="720.00" occupancy="5.37" speed="16.27" length="5.00" nVehEntered="5"/>
    <interval begin="960.00" end="990.00" id="1" nVehContrib="6" flow="720.00" occupancy="10.55" speed="10.28" length="5.00" nVehEntered="6"/>
    <interval begin="990.00" end="1020.00" id="1" nVehContrib="5" flow="600.00" occupancy="5.35" speed="15.72" length="5.00" nVehEntered="5"/>
    <interval begin="1020.00" end="1050.00" id="1" nVehContrib="6" flow="720.00" occupancy="7.03" speed="14.42" length="5.00" nVehEntered="6"/>
    <interval begin="1050.00" end="1080.00" id="1" nVehContrib="4" flow="480.00" occupancy="9.43" speed="7.54" length="5.00" nVehEntered="4"/>
    <interval begin="1080.00" end="1110.00" id="1" nVehContrib="0" flow="0.00" occupancy="0.00" speed="-1.00" length="-1.00" nVehEntered="0"/>
    <interval begin="1110.00" end="1121.00" id="1" nVehContrib="0" flow="0.00" occupancy="0.00" speed="-1.00" length="-1.00" nVehEntered="0"/>
</detector>
